##File Type: Far Field
##File Format: 8
##Source: IEC-62232-panel-antenna
##Date: 2022-08-31 21:51:41  
** File exported by Altair Feko - Solver (seq) Version 2022-14825 from 2022-03-31


#Configuration Name: humanStandardConfiguration1
#Request Name: horCutFF
#Frequency:   9.00000000E+008
#Coordinate System: Spherical
#No. of Theta Samples: 1
#No. of Phi Samples: 181
#Result Type: Directivity
#Efficiency:   1.00000000E+000
#No. of Header Lines: 1
#       "Theta"             "Phi"           "Re(Etheta)"       "Im(Etheta)"        "Re(Ephi)"         "Im(Ephi)"   "Directivity(Theta)" "Directivity(Phi)" "Directivity(Total)"
    9.00000000E+001   -9.00000000E+001    1.28266578E+001    1.96916324E+002    7.89457267E-005    1.44809798E-005    5.11521520E+000   -1.22698514E+002    5.11521520E+000
    9.00000000E+001   -8.90000000E+001    1.00849766E+001    2.01995776E+002    3.97635398E-006    1.51777570E-004    5.32885088E+000   -1.17161675E+002    5.32885088E+000
    9.00000000E+001   -8.80000000E+001    7.30389365E+000    2.07154303E+002   -2.68056437E-005    2.59668844E-004    5.54246779E+000   -1.12454374E+002    5.54246779E+000
    9.00000000E+001   -8.70000000E+001    4.48645672E+000    2.12393785E+002   -1.41671722E-005    4.00358839E-004    5.75596650E+000   -1.08734384E+002    5.75596650E+000
    9.00000000E+001   -8.60000000E+001    1.63579080E+000    2.17716085E+002   -1.88006087E-005    5.88772808E-004    5.96924854E+000   -1.05385426E+002    5.96924854E+000
    9.00000000E+001   -8.50000000E+001   -1.24490056E+000    2.23123044E+002   -7.06943674E-005    7.69949624E-004    6.18221678E+000   -1.03023102E+002    6.18221678E+000
    9.00000000E+001   -8.40000000E+001   -4.15233416E+000    2.28616472E+002   -1.24504864E-004    9.01004750E-004    6.39477588E+000   -1.01612119E+002    6.39477588E+000
    9.00000000E+001   -8.30000000E+001   -7.08314643E+000    2.34198136E+002   -1.27457508E-004    1.01491127E-003    6.60683248E+000   -1.00592285E+002    6.60683248E+000
    9.00000000E+001   -8.20000000E+001   -1.00338930E+001    2.39869754E+002   -9.80973114E-005    1.17120236E-003    6.81829551E+000   -9.93858072E+001    6.81829551E+000
    9.00000000E+001   -8.10000000E+001   -1.30010489E+001    2.45632984E+002   -9.89627560E-005    1.36752817E-003    7.02907628E+000   -9.80473973E+001    7.02907628E+000
    9.00000000E+001   -8.00000000E+001   -1.59810090E+001    2.51489410E+002   -1.44515864E-004    1.54309525E-003    7.23908869E+000   -9.69830267E+001    7.23908869E+000
    9.00000000E+001   -7.90000000E+001   -1.89700889E+001    2.57440535E+002   -1.80436594E-004    1.66790069E-003    7.44824922E+000   -9.62948714E+001    7.44824922E+000
    9.00000000E+001   -7.80000000E+001   -2.19645269E+001    2.63487769E+002   -1.63612326E-004    1.78609184E-003    7.65647703E+000   -9.57144407E+001    7.65647703E+000
    9.00000000E+001   -7.70000000E+001   -2.49604861E+001    2.69632415E+002   -1.24939990E-004    1.95110853E-003    7.86369395E+000   -9.49654064E+001    7.86369395E+000
    9.00000000E+001   -7.60000000E+001   -2.79540573E+001    2.75875662E+002   -1.24501485E-004    2.14823009E-003    8.06982445E+000   -9.41326283E+001    8.06982445E+000
    9.00000000E+001   -7.50000000E+001   -3.09412628E+001    2.82218565E+002   -1.65566587E-004    2.31589976E-003    8.27479565E+000   -9.34722715E+001    8.27479565E+000
    9.00000000E+001   -7.40000000E+001   -3.39180605E+001    2.88662040E+002   -1.90779747E-004    2.43325655E-003    8.47853718E+000   -9.30384330E+001    8.47853719E+000
    9.00000000E+001   -7.30000000E+001   -3.68803493E+001    2.95206848E+002   -1.63868300E-004    2.54862197E-003    8.68098120E+000   -9.26447814E+001    8.68098120E+000
    9.00000000E+001   -7.20000000E+001   -3.98239749E+001    3.01853582E+002   -1.20142811E-004    2.71068186E-003    8.88206225E+000   -9.21187129E+001    8.88206225E+000
    9.00000000E+001   -7.10000000E+001   -4.27447369E+001    3.08602653E+002   -1.16675200E-004    2.90072854E-003    9.08171718E+000   -9.15316446E+001    9.08171719E+000
    9.00000000E+001   -7.00000000E+001   -4.56383958E+001    3.15454282E+002   -1.53837790E-004    3.05899263E-003    9.27988508E+000   -9.10662684E+001    9.27988508E+000
    9.00000000E+001   -6.90000000E+001   -4.85006823E+001    3.22408482E+002   -1.75849151E-004    3.16597130E-003    9.47650713E+000   -9.07652898E+001    9.47650713E+000
    9.00000000E+001   -6.80000000E+001   -5.13273062E+001    3.29465047E+002   -1.46595799E-004    3.26734077E-003    9.67152653E+000   -9.04961845E+001    9.67152653E+000
    9.00000000E+001   -6.70000000E+001   -5.41139664E+001    3.36623540E+002   -9.68977504E-005    3.41164216E-003    9.86488839E+000   -9.01260355E+001    9.86488839E+000
    9.00000000E+001   -6.60000000E+001   -5.68563626E+001    3.43883281E+002   -8.23755990E-005    3.58636221E-003    1.00565396E+001   -8.96934333E+001    1.00565396E+001
    9.00000000E+001   -6.50000000E+001   -5.95502069E+001    3.51243333E+002   -1.10659447E-004    3.73540795E-003    1.02464289E+001   -8.93382364E+001    1.02464289E+001
    9.00000000E+001   -6.40000000E+001   -6.21912364E+001    3.58702492E+002   -1.32619366E-004    3.83170507E-003    1.04345063E+001   -8.91157661E+001    1.04345063E+001
    9.00000000E+001   -6.30000000E+001   -6.47752270E+001    3.66259276E+002   -1.05484418E-004    3.91047203E-003    1.06207237E+001   -8.89410643E+001    1.06207237E+001
    9.00000000E+001   -6.20000000E+001   -6.72980078E+001    3.73911914E+002   -4.55153170E-005    4.02382697E-003    1.08050342E+001   -8.86954654E+001    1.08050342E+001
    9.00000000E+001   -6.10000000E+001   -6.97554756E+001    3.81658334E+002   -6.24785636E-006    4.17670403E-003    1.09873922E+001   -8.83721232E+001    1.09873922E+001
    9.00000000E+001   -6.00000000E+001   -7.21436110E+001    3.89496158E+002   -1.28435003E-005    4.32246742E-003    1.11677535E+001   -8.80741340E+001    1.11677535E+001
    9.00000000E+001   -5.90000000E+001   -7.44584947E+001    3.97422689E+002   -3.30761261E-005    4.41985184E-003    1.13460747E+001   -8.78804095E+001    1.13460747E+001
    9.00000000E+001   -5.80000000E+001   -7.66963238E+001    4.05434907E+002   -1.65038627E-005    4.48102772E-003    1.15223140E+001   -8.77611954E+001    1.15223140E+001
    9.00000000E+001   -5.70000000E+001   -7.88534294E+001    4.13529458E+002    4.74157849E-005    4.55637083E-003    1.16964301E+001   -8.76159554E+001    1.16964301E+001
    9.00000000E+001   -5.60000000E+001   -8.09262939E+001    4.21702654E+002    1.18742506E-004    4.67733121E-003    1.18683828E+001   -8.73860464E+001    1.18683828E+001
    9.00000000E+001   -5.50000000E+001   -8.29115687E+001    4.29950462E+002    1.52213323E-004    4.82318830E-003    1.20381329E+001   -8.71177994E+001    1.20381329E+001
    9.00000000E+001   -5.40000000E+001   -8.48060924E+001    4.38268505E+002    1.45329679E-004    4.94565723E-003    1.22056418E+001   -8.69005782E+001    1.22056418E+001
    9.00000000E+001   -5.30000000E+001   -8.66069083E+001    4.46652057E+002    1.38476722E-004    5.02084099E-003    1.23708717E+001   -8.67699753E+001    1.23708717E+001
    9.00000000E+001   -5.20000000E+001   -8.83112825E+001    4.55096044E+002    1.70890661E-004    5.07272463E-003    1.25337854E+001   -8.66790552E+001    1.25337854E+001
    9.00000000E+001   -5.10000000E+001   -8.99167213E+001    4.63595041E+002    2.40583345E-004    5.14695311E-003    1.26943464E+001   -8.65483242E+001    1.26943464E+001
    9.00000000E+001   -5.00000000E+001   -9.14209885E+001    4.72143278E+002    3.07275980E-004    5.26503664E-003    1.28525189E+001   -8.63460117E+001    1.28525189E+001
    9.00000000E+001   -4.90000000E+001   -9.28221220E+001    4.80734636E+002    3.31594390E-004    5.40463619E-003    1.30082672E+001   -8.61171603E+001    1.30082672E+001
    9.00000000E+001   -4.80000000E+001   -9.41184502E+001    4.89362660E+002    3.10505097E-004    5.52179427E-003    1.31615566E+001   -8.59334913E+001    1.31615566E+001
    9.00000000E+001   -4.70000000E+001   -9.53086066E+001    4.98020556E+002    2.77244921E-004    5.59070160E-003    1.33123524E+001   -8.58288136E+001    1.33123524E+001
    9.00000000E+001   -4.60000000E+001   -9.63915450E+001    5.06701203E+002    2.69585531E-004    5.62405472E-003    1.34606207E+001   -8.57778488E+001    1.34606207E+001
    9.00000000E+001   -4.50000000E+001   -9.73665520E+001    5.15397163E+002    2.97176862E-004    5.65867946E-003    1.36063276E+001   -8.57225436E+001    1.36063276E+001
    9.00000000E+001   -4.40000000E+001   -9.82332598E+001    5.24100686E+002    3.35334992E-004    5.72237633E-003    1.37494398E+001   -8.56223904E+001    1.37494398E+001
    9.00000000E+001   -4.30000000E+001   -9.89916562E+001    5.32803722E+002    3.47234630E-004    5.81104841E-003    1.38899243E+001   -8.54882379E+001    1.38899243E+001
    9.00000000E+001   -4.20000000E+001   -9.96420944E+001    5.41497941E+002    3.13705262E-004    5.89285244E-003    1.40277483E+001   -8.53700053E+001    1.40277483E+001
    9.00000000E+001   -4.10000000E+001   -1.00185300E+002    5.50174737E+002    2.47098025E-004    5.93292530E-003    1.41628793E+001   -8.53159026E+001    1.41628793E+001
    9.00000000E+001   -4.00000000E+001   -1.00622378E+002    5.58825249E+002    1.81105507E-004    5.91799778E-003    1.42952851E+001   -8.53412457E+001    1.42952851E+001
    9.00000000E+001   -3.90000000E+001   -1.00954815E+002    5.67440381E+002    1.46899302E-004    5.86359281E-003    1.44249339E+001   -8.54228059E+001    1.44249339E+001
    9.00000000E+001   -3.80000000E+001   -1.01184483E+002    5.76010812E+002    1.53661093E-004    5.80138303E-003    1.45517939E+001   -8.55151304E+001    1.45517939E+001
    9.00000000E+001   -3.70000000E+001   -1.01313637E+002    5.84527021E+002    1.85544552E-004    5.75788699E-003    1.46758336E+001   -8.55790368E+001    1.46758336E+001
    9.00000000E+001   -3.60000000E+001   -1.01344916E+002    5.92979307E+002    2.14426432E-004    5.73923069E-003    1.47970219E+001   -8.56056753E+001    1.47970219E+001
    9.00000000E+001   -3.50000000E+001   -1.01281336E+002    6.01357808E+002    2.18178604E-004    5.73023333E-003    1.49153278E+001   -8.56190694E+001    1.49153278E+001
    9.00000000E+001   -3.40000000E+001   -1.01126285E+002    6.09652527E+002    1.92867333E-004    5.70598847E-003    1.50307207E+001   -8.56572302E+001    1.50307207E+001
    9.00000000E+001   -3.30000000E+001   -1.00883510E+002    6.17853350E+002    1.53024137E-004    5.64732492E-003    1.51431700E+001   -8.57487639E+001    1.51431700E+001
    9.00000000E+001   -3.20000000E+001   -1.00557113E+002    6.25950077E+002    1.21853738E-004    5.55112318E-003    1.52526458E+001   -8.58990975E+001    1.52526458E+001
    9.00000000E+001   -3.10000000E+001   -1.00151529E+002    6.33932441E+002    1.18159245E-004    5.43101442E-003    1.53591180E+001   -8.60891326E+001    1.53591180E+001
    9.00000000E+001   -3.00000000E+001   -9.96715165E+001    6.41790136E+002    1.47000156E-004    5.30976096E-003    1.54625573E+001   -8.62839801E+001    1.54625573E+001
    9.00000000E+001   -2.90000000E+001   -9.91221349E+001    6.49512842E+002    1.97807653E-004    5.20832888E-003    1.55629344E+001   -8.64485791E+001    1.55629344E+001
    9.00000000E+001   -2.80000000E+001   -9.85087258E+001    6.57090253E+002    2.49461874E-004    5.13707033E-003    1.56602205E+001   -8.65642673E+001    1.56602205E+001
    9.00000000E+001   -2.70000000E+001   -9.78368903E+001    6.64512101E+002    2.78935028E-004    5.09229242E-003    1.57543872E+001   -8.66375292E+001    1.57543872E+001
    9.00000000E+001   -2.60000000E+001   -9.71124633E+001    6.71768184E+002    2.69438401E-004    5.05851227E-003    1.58454065E+001   -8.66960469E+001    1.58454065E+001
    9.00000000E+001   -2.50000000E+001   -9.63414872E+001    6.78848393E+002    2.15191301E-004    5.01441878E-003    1.59332510E+001   -8.67764041E+001    1.59332510E+001
    9.00000000E+001   -2.40000000E+001   -9.55301832E+001    6.85742738E+002    1.21897726E-004    4.93970051E-003    1.60178936E+001   -8.69121507E+001    1.60178936E+001
    9.00000000E+001   -2.30000000E+001   -9.46849210E+001    6.92441374E+002    3.74687815E-006    4.82034400E-003    1.60993079E+001   -8.71272437E+001    1.60993079E+001
    9.00000000E+001   -2.20000000E+001   -9.38121868E+001    6.98934630E+002   -1.21326482E-004    4.65116250E-003    1.61774680E+001   -8.74346226E+001    1.61774680E+001
    9.00000000E+001   -2.10000000E+001   -9.29185504E+001    7.05213031E+002   -2.36335693E-004    4.43552816E-003    1.62523487E+001   -8.78375879E+001    1.62523487E+001
    9.00000000E+001   -2.00000000E+001   -9.20106308E+001    7.11267326E+002   -3.28641463E-004    4.18311392E-003    1.63239254E+001   -8.83320896E+001    1.63239254E+001
    9.00000000E+001   -1.90000000E+001   -9.10950606E+001    7.17088513E+002   -3.91550043E-004    3.90676357E-003    1.63921744E+001   -8.89090581E+001    1.63921744E+001
    9.00000000E+001   -1.80000000E+001   -9.01784509E+001    7.22667861E+002   -4.24241817E-004    3.61948970E-003    1.64570726E+001   -8.95566016E+001    1.64570726E+001
    9.00000000E+001   -1.70000000E+001   -8.92673543E+001    7.27996937E+002   -4.30541907E-004    3.33224339E-003    1.65185976E+001   -9.02621705E+001    1.65185976E+001
    9.00000000E+001   -1.60000000E+001   -8.83682285E+001    7.33067625E+002   -4.17153321E-004    3.05269917E-003    1.65767283E+001   -9.10147771E+001    1.65767283E+001
    9.00000000E+001   -1.50000000E+001   -8.74874002E+001    7.37872150E+002   -3.91884690E-004    2.78498238E-003    1.66314441E+001   -9.18072066E+001    1.66314441E+001
    9.00000000E+001   -1.40000000E+001   -8.66310283E+001    7.42403100E+002   -3.62219503E-004    2.53008452E-003    1.66827256E+001   -9.26379924E+001    1.66827256E+001
    9.00000000E+001   -1.30000000E+001   -8.58050685E+001    7.46653442E+002   -3.34377887E-004    2.28665940E-003    1.67305542E+001   -9.35128903E+001    1.67305542E+001
    9.00000000E+001   -1.20000000E+001   -8.50152388E+001    7.50616545E+002   -3.12867937E-004    2.05192876E-003    1.67749125E+001   -9.44457496E+001    1.67749125E+001
    9.00000000E+001   -1.10000000E+001   -8.42669852E+001    7.54286195E+002   -3.00430668E-004    1.82250630E-003    1.68157842E+001   -9.54589868E+001    1.68157842E+001
    9.00000000E+001   -1.00000000E+001   -8.35654499E+001    7.57656614E+002   -2.98246657E-004    1.59503676E-003    1.68531542E+001   -9.65841444E+001    1.68531542E+001
    9.00000000E+001   -9.00000000E+000   -8.29154397E+001    7.60722472E+002   -3.06277051E-004    1.36661911E-003    1.68870083E+001   -9.78630269E+001    1.68870083E+001
    9.00000000E+001   -8.00000000E+000   -8.23213980E+001    7.63478906E+002   -3.23638620E-004    1.13503171E-003    1.69173339E+001   -9.93491744E+001    1.69173339E+001
    9.00000000E+001   -7.00000000E+000   -8.17873766E+001    7.65921527E+002   -3.48946596E-004    8.98802487E-004    1.69441192E+001   -1.01105801E+002    1.69441192E+001
    9.00000000E+001   -6.00000000E+000   -8.13170121E+001    7.68046436E+002   -3.80590424E-004    6.57173960E-004    1.69673542E+001   -1.03179106E+002    1.69673542E+001
    9.00000000E+001   -5.00000000E+000   -8.09135028E+001    7.69850234E+002   -4.16931408E-004    4.10008583E-004    1.69870298E+001   -1.05449323E+002    1.69870298E+001
    9.00000000E+001   -4.00000000E+000   -8.05795891E+001    7.71330027E+002   -4.56426563E-004    1.57669532E-004    1.70031384E+001   -1.07111803E+002    1.70031384E+001
    9.00000000E+001   -3.00000000E+000   -8.03175368E+001    7.72483440E+002   -4.97690878E-004   -9.90992731E-005    1.70156737E+001   -1.06680750E+002    1.70156737E+001
    9.00000000E+001   -2.00000000E+000   -8.01291230E+001    7.73308618E+002   -5.39512695E-004   -3.59280569E-004    1.70246309E+001   -1.04554696E+002    1.70246309E+001
    9.00000000E+001   -1.00000000E+000   -8.00156248E+001    7.73804231E+002   -5.80836128E-004   -6.21673284E-004    1.70300064E+001   -1.02192331E+002    1.70300064E+001
    9.00000000E+001    0.00000000E+000   -7.99778114E+001    7.73969483E+002   -6.20722091E-004   -8.84964660E-004    1.70317981E+001   -1.00112675E+002    1.70317981E+001
    9.00000000E+001    1.00000000E+000   -8.00159396E+001    7.73804106E+002   -6.58296861E-004   -1.14778907E-003    1.70300053E+001   -9.83565048E+001    1.70300053E+001
    9.00000000E+001    2.00000000E+000   -8.01297518E+001    7.73308367E+002   -6.92694989E-004   -1.40877975E-003    1.70246288E+001   -9.68715421E+001    1.70246288E+001
    9.00000000E+001    3.00000000E+000   -8.03184779E+001    7.72483065E+002   -7.23002185E-004   -1.66662048E-003    1.70156706E+001   -9.56031991E+001    1.70156706E+001
    9.00000000E+001    4.00000000E+000   -8.05808400E+001    7.71329530E+002   -7.48203836E-004   -1.92010445E-003    1.70031343E+001   -9.45083831E+001    1.70031343E+001
    9.00000000E+001    5.00000000E+000   -8.09150602E+001    7.69849615E+002   -7.67145940E-004   -2.16820636E-003    1.69870247E+001   -9.35545526E+001    1.69870247E+001
    9.00000000E+001    6.00000000E+000   -8.13188720E+001    7.68045700E+002   -7.78517398E-004   -2.41017205E-003    1.69673482E+001   -9.27168277E+001    1.69673482E+001
    9.00000000E+001    7.00000000E+000   -8.17895341E+001    7.65920676E+002   -7.80865222E-004   -2.64562587E-003    1.69441123E+001   -9.19754816E+001    1.69441123E+001
    9.00000000E+001    8.00000000E+000   -8.23238475E+001    7.63477943E+002   -7.72656578E-004   -2.87469077E-003    1.69173260E+001   -9.13140554E+001    1.69173260E+001
    9.00000000E+001    9.00000000E+000   -8.29181752E+001    7.60721402E+002   -7.52402357E-004   -3.09810760E-003    1.68869996E+001   -9.07179980E+001    1.68869996E+001
    9.00000000E+001    1.00000000E+001   -8.35684644E+001    7.57655441E+002   -7.18854485E-004   -3.31732984E-003    1.68531447E+001   -9.01737434E+001    1.68531447E+001
    9.00000000E+001    1.10000000E+001   -8.42702715E+001    7.54284923E+002   -6.71281272E-004   -3.53455877E-003    1.68157739E+001   -8.96682144E+001    1.68157739E+001
    9.00000000E+001    1.20000000E+001   -8.50187889E+001    7.50615180E+002   -6.09809765E-004   -3.75267345E-003    1.67749015E+001   -8.91887985E+001    1.67749015E+001
    9.00000000E+001    1.30000000E+001   -8.58088742E+001    7.46651989E+002   -5.35800234E-004   -3.97500577E-003    1.67305425E+001   -8.87238531E+001    1.67305425E+001
    9.00000000E+001    1.40000000E+001   -8.66350807E+001    7.42401565E+002   -4.52186535E-004   -4.20491755E-003    1.66827133E+001   -8.82637222E+001    1.66827133E+001
    9.00000000E+001    1.50000000E+001   -8.74916904E+001    7.37870540E+002   -3.63681996E-004   -4.44516181E-003    1.66314313E+001   -8.78020818E+001    1.66314313E+001
    9.00000000E+001    1.60000000E+001   -8.83727471E+001    7.33065944E+002   -2.76723549E-004   -4.69705908E-003    1.65767151E+001   -8.73372387E+001    1.65767151E+001
    9.00000000E+001    1.70000000E+001   -8.92720916E+001    7.27995193E+002   -1.99022126E-004   -4.95959221E-003    1.65185840E+001   -8.68728997E+001    1.65185840E+001
    9.00000000E+001    1.80000000E+001   -9.01833973E+001    7.22666060E+002   -1.38623444E-004   -5.22861079E-003    1.64570586E+001   -8.64180290E+001    1.64570586E+001
    9.00000000E+001    1.90000000E+001   -9.11002063E+001    7.17086662E+002   -1.02476182E-004   -5.49641627E-003    1.63921601E+001   -8.59857052E+001    1.63921601E+001
    9.00000000E+001    2.00000000E+001   -9.20159659E+001    7.11265432E+002   -9.46585934E-005   -5.75203522E-003    1.63239110E+001   -8.55912002E+001    1.63239110E+001
    9.00000000E+001    2.10000000E+001   -9.29240652E+001    7.05211101E+002   -1.14610498E-004   -5.98243501E-003    1.62523341E+001   -8.52496535E+001    1.62523341E+001
    9.00000000E+001    2.20000000E+001   -9.38178714E+001    6.98932671E+002   -1.55902683E-004   -6.17475462E-003    1.61774534E+001   -8.49736452E+001    1.61774534E+001
    9.00000000E+001    2.30000000E+001   -9.46907658E+001    6.92439394E+002   -2.06164260E-004   -6.31930738E-003    1.60992933E+001   -8.47707973E+001    1.60992933E+001
    9.00000000E+001    2.40000000E+001   -9.55361788E+001    6.85740743E+002   -2.48679540E-004   -6.41271134E-003    1.60178792E+001   -8.46414470E+001    1.60178792E+001
    9.00000000E+001    2.50000000E+001   -9.63476244E+001    6.78846390E+002   -2.65785968E-004   -6.46014797E-003    1.59332368E+001   -8.45766125E+001    1.59332368E+001
    9.00000000E+001    2.60000000E+001   -9.71187330E+001    6.71766181E+002   -2.43566378E-004   -6.47563038E-003    1.58453926E+001   -8.45570262E+001    1.58453926E+001
    9.00000000E+001    2.70000000E+001   -9.78432839E+001    6.64510105E+002   -1.76587224E-004   -6.47947507E-003    1.57543737E+001   -8.45547860E+001    1.57543737E+001
    9.00000000E+001    2.80000000E+001   -9.85152349E+001    6.57088270E+002   -7.08966470E-005   -6.49300414E-003    1.56602074E+001   -8.45393756E+001    1.56602074E+001
    9.00000000E+001    2.90000000E+001   -9.91287513E+001    6.49510880E+002    5.64535263E-005   -6.53171782E-003    1.55629219E+001   -8.44879342E+001    1.55629219E+001
    9.00000000E+001    3.00000000E+001   -9.96782328E+001    6.41788201E+002    1.82177974E-004   -6.59933314E-003    1.54625455E+001   -8.43954976E+001    1.54625455E+001
    9.00000000E+001    3.10000000E+001   -1.00158338E+002    6.33930540E+002    2.84905994E-004   -6.68552917E-003    1.53591070E+001   -8.42782113E+001    1.53591070E+001
    9.00000000E+001    3.20000000E+001   -1.00564007E+002    6.25948217E+002    3.53825633E-004   -6.76937839E-003    1.52526356E+001   -8.41659824E+001    1.52526356E+001
    9.00000000E+001    3.30000000E+001   -1.00890484E+002    6.17851538E+002    3.93761910E-004   -6.82816434E-003    1.51431608E+001   -8.40883091E+001    1.51431608E+001
    9.00000000E+001    3.40000000E+001   -1.01133331E+002    6.09650768E+002    4.23293036E-004   -6.84830893E-003    1.50307125E+001   -8.40605796E+001    1.50307125E+001
    9.00000000E+001    3.50000000E+001   -1.01288450E+002    6.01356109E+002    4.65409310E-004   -6.83299188E-003    1.49153208E+001   -8.40764874E+001    1.49153208E+001
    9.00000000E+001    3.60000000E+001   -1.01352093E+002    5.92977674E+002    5.34439114E-004   -6.80145157E-003    1.47970161E+001   -8.41100422E+001    1.47970161E+001
    9.00000000E+001    3.70000000E+001   -1.01320871E+002    5.84525459E+002    6.26257503E-004   -6.77866839E-003    1.46758291E+001   -8.41290083E+001    1.46758291E+001
    9.00000000E+001    3.80000000E+001   -1.01191770E+002    5.76009327E+002    7.18557529E-004   -6.77990369E-003    1.45517909E+001   -8.41158263E+001    1.45517909E+001
    9.00000000E+001    3.90000000E+001   -1.00962152E+002    5.67438978E+002    7.83049827E-004   -6.79911817E-003    1.44249324E+001   -8.40825291E+001    1.44249324E+001
    9.00000000E+001    4.00000000E+001   -1.00629761E+002    5.58823934E+002    8.03734898E-004   -6.80988559E-003    1.42952853E+001   -8.40659316E+001    1.42952853E+001
    9.00000000E+001    4.10000000E+001   -1.00192726E+002    5.50173513E+002    7.89654479E-004   -6.78063062E-003    1.41628812E+001   -8.41049006E+001    1.41628812E+001
    9.00000000E+001    4.20000000E+001   -9.96495608E+001    5.41496813E+002    7.71853711E-004   -6.69593208E-003    1.40277521E+001   -8.42152587E+001    1.40277521E+001
    9.00000000E+001    4.30000000E+001   -9.89991608E+001    5.32802695E+002    7.83912379E-004   -6.56916488E-003    1.38899301E+001   -8.43771957E+001    1.38899301E+001
    9.00000000E+001    4.40000000E+001   -9.82408005E+001    5.24099762E+002    8.38082400E-004   -6.43530144E-003    1.37494476E+001   -8.45443887E+001    1.37494476E+001
    9.00000000E+001    4.50000000E+001   -9.73741274E+001    5.15396347E+002    9.15107333E-004   -6.32629732E-003    1.36063376E+001   -8.46758808E+001    1.36063376E+001
    9.00000000E+001    4.60000000E+001   -9.63991538E+001    5.06700497E+002    9.78088916E-004   -6.24636411E-003    1.34606329E+001   -8.47710610E+001    1.34606329E+001
    9.00000000E+001    4.70000000E+001   -9.53162480E+001    4.98019961E+002    1.00228297E-003   -6.16781745E-003    1.33123670E+001   -8.48729810E+001    1.33123670E+001
    9.00000000E+001    4.80000000E+001   -9.41261236E+001    4.89362180E+002    9.97291803E-004   -6.05394850E-003    1.31615736E+001   -8.50317474E+001    1.31615736E+001
    9.00000000E+001    4.90000000E+001   -9.28298271E+001    4.80734273E+002    1.00085196E-003   -5.89217798E-003    1.30082868E+001   -8.52597574E+001    1.30082868E+001
    9.00000000E+001    5.00000000E+001   -9.14287252E+001    4.72143032E+002    1.04617734E-003   -5.70843245E-003    1.28525411E+001   -8.55149974E+001    1.28525411E+001
    9.00000000E+001    5.10000000E+001   -8.99244898E+001    4.63594913E+002    1.13022318E-003   -5.54678620E-003    1.26943713E+001   -8.57313070E+001    1.26943713E+001
    9.00000000E+001    5.20000000E+001   -8.83190832E+001    4.55096034E+002    1.21361516E-003   -5.42969402E-003    1.25338131E+001   -8.58815776E+001    1.25338131E+001
    9.00000000E+001    5.30000000E+001   -8.66147419E+001    4.46652165E+002    1.25608508E-003   -5.33575974E-003    1.23709022E+001   -8.60106394E+001    1.23709022E+001
    9.00000000E+001    5.40000000E+001   -8.48139597E+001    4.38268730E+002    1.25566595E-003   -5.21945024E-003    1.22056752E+001   -8.61919640E+001    1.22056752E+001
    9.00000000E+001    5.50000000E+001   -8.29194707E+001    4.29950803E+002    1.25162544E-003   -5.05688983E-003    1.20381693E+001   -8.64529164E+001    1.20381693E+001
    9.00000000E+001    5.60000000E+001   -8.09342316E+001    4.21703110E+002    1.28438991E-003   -4.87208227E-003    1.18684221E+001   -8.67427199E+001    1.18684221E+001
    9.00000000E+001    5.70000000E+001   -7.88614041E+001    4.13530026E+002    1.35151127E-003   -4.71341606E-003    1.16964724E+001   -8.69789432E+001    1.16964724E+001
    9.00000000E+001    5.80000000E+001   -7.67043368E+001    4.05435583E+002    1.40778587E-003   -4.60171182E-003    1.15223593E+001   -8.71418691E+001    1.15223593E+001
    9.00000000E+001    5.90000000E+001   -7.44665473E+001    3.97423472E+002    1.41334138E-003   -4.50561574E-003    1.13461231E+001   -8.73061270E+001    1.13461231E+001
    9.00000000E+001    6.00000000E+001   -7.21517047E+001    3.89497043E+002    1.37879661E-003   -4.37484430E-003    1.11678049E+001   -8.75582788E+001    1.11678049E+001
    9.00000000E+001    6.10000000E+001   -6.97636118E+001    3.81659317E+002    1.35467753E-003   -4.19731530E-003    1.09874466E+001   -8.78990288E+001    1.09874466E+001
    9.00000000E+001    6.20000000E+001   -6.73061880E+001    3.73912989E+002    1.37330158E-003   -4.01437779E-003    1.08050916E+001   -8.82357957E+001    1.08050916E+001
    9.00000000E+001    6.30000000E+001   -6.47834527E+001    3.66260440E+002    1.40960551E-003   -3.87274641E-003    1.06207840E+001   -8.84881124E+001    1.06207840E+001
    9.00000000E+001    6.40000000E+001   -6.21995089E+001    3.58703738E+002    1.41015853E-003   -3.76756081E-003    1.04345694E+001   -8.86982001E+001    1.04345694E+001
    9.00000000E+001    6.50000000E+001   -5.95585276E+001    3.51244655E+002    1.35881142E-003   -3.64677164E-003    1.02464946E+001   -8.89860247E+001    1.02464946E+001
    9.00000000E+001    6.60000000E+001   -5.68647326E+001    3.43884674E+002    1.29845234E-003   -3.47522427E-003    1.00566079E+001   -8.94016247E+001    1.00566079E+001
    9.00000000E+001    6.70000000E+001   -5.41223869E+001    3.36624996E+002    1.27833351E-003   -3.28005141E-003    9.86495907E+000   -8.98570867E+001    9.86495907E+000
    9.00000000E+001    6.80000000E+001   -5.13357781E+001    3.29466559E+002    1.29095187E-003   -3.11739848E-003    9.67159943E+000   -9.02255796E+001    9.67159943E+000
    9.00000000E+001    6.90000000E+001   -4.85092065E+001    3.22410043E+002    1.28081861E-003   -2.99982506E-003    9.47658205E+000   -9.05196165E+001    9.47658205E+000
    9.00000000E+001    7.00000000E+001   -4.56469728E+001    3.15455885E+002    1.21724984E-003   -2.87883051E-003    9.27996178E+000   -9.08901448E+001    9.27996178E+000
    9.00000000E+001    7.10000000E+001   -4.27533672E+001    3.08604289E+002    1.13649872E-003   -2.70877324E-003    9.08179539E+000   -9.14291611E+001    9.08179539E+000
    9.00000000E+001    7.20000000E+001   -3.98326587E+001    3.01855243E+002    1.09448909E-003   -2.50918442E-003    8.88214165E+000   -9.20417206E+001    8.88214165E+000
    9.00000000E+001    7.30000000E+001   -3.68890865E+001    2.95208527E+002    1.09099348E-003   -2.33985497E-003    8.68106145E+000   -9.25506829E+001    8.68106145E+000
    9.00000000E+001    7.40000000E+001   -3.39268508E+001    2.88663727E+002    1.06908718E-003   -2.21950726E-003    8.47861791E+000   -9.29575212E+001    8.47861791E+000
    9.00000000E+001    7.50000000E+001   -3.09501057E+001    2.82220251E+002    9.93608642E-004   -2.09946348E-003    8.27487642E+000   -9.34688884E+001    8.27487642E+000
    9.00000000E+001    7.60000000E+001   -2.79629518E+001    2.75877339E+002    9.00980551E-004   -1.93140348E-003    8.06990482E+000   -9.42162540E+001    8.06990482E+000
    9.00000000E+001    7.70000000E+001   -2.49694310E+001    2.69634075E+002    8.48708826E-004   -1.73618252E-003    7.86377340E+000   -9.50663237E+001    7.86377340E+000
    9.00000000E+001    7.80000000E+001   -2.19735207E+001    2.63489401E+002    8.33674125E-004   -1.57534430E-003    7.65655502E+000   -9.57690146E+001    7.65655502E+000
    9.00000000E+001    7.90000000E+001   -1.89791298E+001    2.57442131E+002    7.95944741E-004   -1.46358914E-003    7.44832516E+000   -9.63552050E+001    7.44832516E+000